0956d6550519bdc25fd5ab2f11dcb1a77fc8a4db5a0f68b2fa8192fc1c4f4f7b